27
Lattice="10.41458921 0.0 0.0 -5.2072946 9.01929883 0.0 0.0 0.0 18.35544751" Properties=species:S:1:pos:R:3:forces:R:3 energy=-176.00022093 stress="0.00012184194143497517 0.00019288236140013962 0.0005625151236759328 0.00019288236140013962 -7.835796526434998e-06 0.001465291204179329 0.0005625151236759328 0.001465291204179329 0.0034724037960447065" free_energy=-176.00021657 pbc="T T T"
Nb       0.00756636       0.02372608       9.22592791      -0.04742168       0.14066220       0.14752704
Nb      -1.70751944       2.98976525       9.08353681      -0.26244819       0.13172847       0.26187031
Nb      -3.43558187       5.97369231       9.13105980       0.13662206      -0.31544351       0.14925289
Nb       3.43002855       0.00234042       9.15182532       0.00678485       0.05880833      -0.14194213
Nb       1.67251033       2.94950157       9.24145295       0.39535449      -0.00155401       0.07191948
Nb       0.02665588       6.07314442       9.25549872       0.04528692      -0.07915135      -0.24304702
Nb       6.94496647       0.06050930       9.10184949      -0.01659678       0.09657183       0.83597065
Nb       5.18234182       2.98480987       9.18990516       0.43596925       0.02528581      -0.79843688
Nb       3.50771884       6.00201597       9.20234520      -0.14682955      -0.02291028       0.16580905
Se       1.74248955       0.96799201      10.95039559      -0.07570161       0.13916515      -0.29397907
Se       1.68733493       1.03727970       7.47056214       0.13643846      -0.27358647       0.22759193
Se      -0.03650423       4.09346190      10.85798050      -0.00701126      -0.51641714       0.17520360
Se       0.09642691       4.02935389       7.51300655      -0.49720401       0.16344857      -0.02537495
Se      -1.73130251       7.07378764      10.88589381      -0.12858342      -0.29692236      -0.18933521
Se      -1.67331022       6.93528296       7.48290123      -0.18779949       0.42876443       0.05924970
Se       5.16193355       0.98728600      10.83591138       0.14761028      -0.05387337       0.02446609
Se       5.19832103       0.97503590       7.46083522      -0.35190992       0.11440757      -0.07172356
Se       3.54642289       4.01025282      10.84768677      -0.65233677      -0.06068244       0.31963697
Se       3.38397545       3.98912972       7.48556754       0.36246948       0.05211303       0.47619591
Se       1.83136802       7.10275158      10.91070653      -0.31256930      -0.20781349      -0.38939262
Se       1.77808501       7.05684389       7.54765961      -0.14751153      -0.47893553      -0.27121754
Se       8.61676367       1.04145735      10.85890048       0.33818013       0.03496673      -0.22949851
Se       8.68006635       0.93532275       7.44199134       0.29408903       0.38998585       0.02287653
Se       6.91482655       3.99398084      10.87128123       0.34490989      -0.01951654      -0.68636447
Se       6.89682602       3.92992532       7.34756982       0.14296043       0.30400089       1.03428142
Se       5.29658435       6.97197888      10.88211167      -0.22689798       0.24716609      -0.17013559
Se       5.19480252       7.02139318       7.56683959       0.26108113       0.00715962      -0.46804813
54
Lattice="6.94305947 0.0 0.0 -15.62188381 27.05789648 0.0 0.0 0.0 18.35544751" Properties=species:S:1:pos:R:3:forces:R:3 energy=-352.81690414 stress="-0.0005107532960950319 -1.3992090328222572e-05 -3.311450142962916e-05 -1.3992090328222572e-05 -0.0005453510921684272 -2.5544524535356398e-05 -3.311450142962916e-05 -2.5544524535356398e-05 0.0007598640588027735" free_energy=-352.81692608 pbc="T T T"
Nb       0.00478066       0.00531065       9.17110166      -0.01929428       0.02775133       0.17959792
Nb       3.47621904       0.00014665       9.17031531      -0.10601717       0.03333981       0.22094266
Nb      -1.72327186       3.01226227       9.18840424      -0.05911325      -0.05853492      -0.20301424
Nb       1.73216835       3.00322439       9.17144674       0.00210178      -0.05369964       0.09192846
Nb       3.46987038       6.01074449       9.17589922       0.05910608       0.07557168      -0.08402613
Nb       0.00441294       6.01505589       9.16890341      -0.07042994       0.06354114       0.04226264
Nb      -5.20642856       9.02438156       9.18745343       0.02571322      -0.10437129      -0.21394005
Nb      -1.73647608       9.01806625       9.18183060      -0.04123567      -0.00649488      -0.14800284
Nb      -0.00230510      12.02233751       9.17888382       0.01639075       0.03274537      -0.04899421
Nb      -3.47620967      12.02482196       9.18180894       0.08129842      -0.05293964      -0.05002094
Nb      -1.73763915      15.02428449       9.18609439      -0.00302562       0.06032356      -0.12373421
Nb      -5.20452372      15.03825313       9.17763069       0.01259956      -0.02657674      -0.07798267
Nb     -10.40833679      18.04911731       9.17714556      -0.09388181      -0.06737220      -0.00405057
Nb      -6.94057410      18.02789120       9.18721958       0.05022714       0.10430839      -0.12198962
Nb     -12.14368389      21.04967460       9.17858958       0.01165539      -0.07368613      -0.01362800
Nb      -8.68087296      21.02649437       9.18257106      -0.05119535       0.13895963      -0.13641124
Nb      -6.94836404      24.05061909       9.17894274       0.04184014       0.04243268      -0.00610471
Nb     -10.43328720      24.05403136       9.18220028       0.05712186      -0.03964493      -0.06959652
Se       1.73165274       1.00953499      10.88349714       0.02276615      -0.05906150      -0.20158578
Se       5.20107770       1.00885719      10.86977498       0.03763665      -0.05434234      -0.05510269
Se      -0.00753247       4.01367123      10.85738468       0.10333269       0.02304585       0.10270947
Se       3.46911529       4.01207129      10.85023891      -0.00703182      -0.01539905       0.12690172
Se      -1.73957847       7.02237024      10.86516905       0.07085945      -0.06429569      -0.02949099
Se       1.74860496       7.00685632      10.86401449      -0.11359137       0.02144232       0.02009577
Se      -3.47805722      10.01587489      10.86070665       0.06114167       0.05484534       0.11200370
Se       0.00653321      10.02106730      10.84945752      -0.06882022       0.00793168       0.23252252
Se      -5.20139194      13.03141927      10.86416427      -0.03865910       0.00253463       0.02245438
Se      -1.73280386      13.02342664      10.86388967      -0.01612222      -0.03039555       0.08017366
Se      -6.95084443      16.02445014      10.86291867       0.05350214       0.02667673       0.07920424
Se      -3.46684852      16.03394881      10.87597471      -0.04162397       0.01512743      -0.09147798
Se      -8.68248668      19.04651467      10.86116848       0.03120289      -0.07867003       0.14485564
Se      -5.21083388      19.03042226      10.87246919       0.02567891       0.06395599      -0.05877393
Se     -10.41098314      22.04515518      10.86565767      -0.02525609       0.01880873       0.01160038
Se      -6.94430379      22.04650645      10.85658732       0.01125617      -0.01502508       0.06836863
Se     -12.14811714      25.05777434      10.87328674      -0.04214823       0.00632896      -0.02786266
Se      -8.67992692      25.04966725      10.85962478      -0.01377344       0.04704509      -0.00057494
Se       1.73126946       0.99888744       7.49024377       0.04183183       0.02494786      -0.05623187
Se       5.20410810       1.00191792       7.49717204       0.01719187       0.05794683      -0.07155188
Se       0.01965790       4.01070081       7.48875570      -0.16085665      -0.00840251      -0.04977514
Se       3.46362933       4.02030393       7.49120615       0.11701599      -0.10229062      -0.00600846
Se      -1.73623137       7.02127953       7.47835018       0.01046634      -0.02976089       0.10038612
Se       1.73336738       7.01403424       7.48740473       0.03011177       0.05742513       0.01735282
Se      -3.47716814      10.01524146       7.48474301       0.02564702       0.01987275       0.07742819
Se      -0.00097232      10.02046255       7.49252517       0.00464673      -0.01109823      -0.02508013
Se      -5.19724496      13.01224226       7.49806117      -0.06462759       0.14042823      -0.05224745
Se      -1.73043357      13.01949351       7.48987850      -0.03399515       0.04420702       0.01355339
Se      -6.95545226      16.04863557       7.48418409       0.08174858      -0.12944496       0.08444015
Se      -3.46058706      16.03953573       7.49509971      -0.07506007      -0.03742802       0.00754282
Se      -8.67560410      19.04445178       7.48852442       0.01083557      -0.03740678      -0.01328293
Se      -5.20661465      19.04875669       7.48584434      -0.02070953      -0.06565431       0.10309670
Se     -10.41714052      22.04722132       7.48071913       0.03120719       0.01900558       0.11755050
Se      -6.94372927      22.04134948       7.49386383      -0.01500846       0.01621826       0.01231485
Se     -12.15665690      25.05468216       7.49656741       0.02658530      -0.01484298      -0.10135257
Se      -8.67783653      25.05227509       7.48698660      -0.04360386      -0.02465037       0.06680518
27
Lattice="10.285 0.0 0.0 -5.1675 8.95037255 0.0 0.0 0.0 18.0" Properties=species:S:1:pos:R:3:forces:R:3 energy=-175.38050882 stress="-0.00580314913430548 -0.0005401797834048135 -7.968527835355118e-05 -0.0005401797834048135 -0.005046434085377463 0.0020181059428925605 -7.968527835355118e-05 0.0020181059428925605 0.0007936143390764925" free_energy=-175.38050435 pbc="T T T"
Nb      -5.11677052       8.93711714       9.11133036      -0.47940744      -0.07806875      -0.97755583
Nb       8.49167184       2.94380322       8.98956000       0.44179353       0.23159335       0.72270957
Nb       6.81652998       5.96741073       8.95815000      -0.00196883       0.80347069       0.21210726
Nb       3.43101673       0.05853857       8.88663816       0.00452519      -0.80462382       0.47117094
Nb       1.76049191       2.91581827       8.90925822      -0.33504539       0.52510844       0.21269797
Nb      -0.07788507       5.91355169       9.05409162       0.05631335       0.21552230      -0.38343482
Nb       1.74869136       8.90756319       9.14731866      -0.29301484       0.56686143      -0.20498064
Nb       5.14155076       2.94204116       8.99463816      -0.20790843       0.12363306       0.44596016
Nb       3.42013626       6.04161317       8.94213000       0.11035835      -0.33304386       0.37963745
Se       1.83713937       1.06950293      10.63399392      -0.67111760      -0.51084598       0.76026386
Se       1.78065317       0.91696799       7.21943334      -0.98196067       0.17829424      -0.17154964
Se      -0.01940827       3.98055638      10.77663204       0.15376993      -0.30421591      -0.87767614
Se      -0.04696309       3.89611176       7.36358922       0.08861027       0.41929558      -0.40276989
Se      -1.72912271       7.07876587      10.66567554      -0.26434245      -0.53879295      -0.13528577
Se      -1.69190759       6.88827590       7.25801166      -0.09792688       0.12207545       0.10665548
Se       5.01520543       0.94232592      10.72004292       0.89520174       0.58813672      -0.07302516
Se       5.14877334       0.93092717       7.32267954       0.77667928       0.40745801      -0.29242482
Se       3.35521190       3.98669427      10.60493868       0.52133577       0.09438583       0.05365076
Se       3.37196121       3.98949896       7.23723732       0.48957043       0.04243279       0.17255388
Se       1.63049304       6.85568983      10.72070334       0.46107915       0.39920437       0.16773968
Se       1.74879453       7.08331159       7.31411874      -0.64150918      -0.65713521       0.13983181
Se       8.63746682       1.08547362      10.75126068      -0.27551046      -0.47637879       0.29916332
Se       8.49067753       1.00742189       7.35184026       0.62468953      -0.48417079       0.05368177
Se       6.95701391       4.14937472      10.70851950      -0.81626270      -0.99515390      -0.07347116
Se       6.84212507       3.98008219       7.31893410      -0.23071652       0.00528231      -0.29399963
Se       5.05648489       6.94078935      10.76687946       0.36388222       0.10601303      -0.37462740
Se       5.09285512       6.96616097       7.27353180       0.29976510       0.35414126       0.06071025
243
Lattice="31.24376763 0.0 0.0 -15.62188381 27.05789648 0.0 0.0 0.0 18.35544751" Properties=species:S:1:pos:R:3:forces:R:3 energy=-1587.79023393 stress="-0.0005469036925295272 -1.1008268233993695e-05 3.859849107592221e-06 -1.1008268233993695e-05 -0.0005127684734219784 1.0207782205580915e-05 3.859849107592221e-06 1.0207782205580915e-05 0.0007497854633530802" free_energy=-1587.79028554 pbc="T T T"
Nb      -1.73653407       3.01275472       9.17952185      -0.05460039       0.00108591      -0.02158745
Nb       1.74308261       3.01388655       9.17411673      -0.03998403       0.00866973       0.00625844
Nb       5.20647706       3.02224095       9.17826322       0.03124858      -0.10968563      -0.04336140
Nb       8.68528953       3.00868142       9.18351435       0.00398568      -0.01109152      -0.03584020
Nb      12.15225873       3.00279552       9.17196345      -0.01899359       0.00205193       0.07113011
Nb      15.61937588       2.99165470       9.17682471       0.05386125       0.09059307       0.10486103
Nb      19.09633543       3.00125538       9.17711821      -0.06183031      -0.00282308       0.02969793
Nb      22.56375580       2.99348517       9.17937685      -0.02606288       0.07753688      -0.07335322
Nb      26.03836676       3.00575376       9.18343101      -0.08059908       0.02822737      -0.12951234
Nb      -3.46536609       6.02093963       9.17666501      -0.06732280       0.01993447       0.01601073
Nb       0.00766050       6.02128164       9.17122464      -0.01069623      -0.02744609       0.08729390
Nb       3.47582900       6.01112844       9.17371437       0.02067562       0.05927454       0.05759064
Nb       6.94262230       6.01372518       9.17692676      -0.02195208      -0.01055972      -0.03757730
Nb      10.41148098       5.99792067       9.16882999       0.06067333       0.04004009       0.12666056
Nb      13.87815462       6.00331682       9.18116283      -0.02172975       0.03861974      -0.02775513
Nb      17.34724121       6.00941053       9.17769292       0.06774142       0.00474214       0.02710409
Nb      20.82434964       6.01070417       9.18308318      -0.00889218       0.03990508      -0.02459510
Nb      24.30322554       6.02353421       9.18118688      -0.00074618      -0.03823021      -0.12375753
Nb      -5.20162599       9.02752217       9.17772541      -0.04699458       0.01144743       0.03861587
Nb      -1.72678398       9.02600937       9.17790804      -0.04544821      -0.02159314       0.03628690
Nb       1.74296857       9.01616300       9.17257505      -0.06329346      -0.01976468       0.07859837
Nb       5.20169098       9.01511937       9.17993559       0.04630122      -0.05622388      -0.04391497
Nb       8.67162882       9.00761568       9.18195267       0.02698988       0.05341533      -0.10231196
Nb      12.14613699       9.01756216       9.17911638       0.02213752      -0.05177970      -0.03121167
Nb      15.62300141       9.02163302       9.17568612      -0.04665903       0.00208375       0.01005064
Nb      19.09325761       9.02724537       9.17824248       0.00552557      -0.04901321       0.00131710
Nb      22.56574790       9.02393321       9.17098033       0.05893364       0.02361274       0.08615813
Nb      -6.93902427      12.02569756       9.17783756       0.02147678      -0.02681812       0.00640670
Nb      -3.46946292      12.02088937       9.18097781      -0.01310045      -0.00790121      -0.04697005
Nb      -0.00383361      12.01272979       9.17751707       0.00403632       0.01988262      -0.01585379
Nb       3.46332025      12.02137452       9.17952259       0.01509387      -0.02085603       0.01200372
Nb       6.94119134      12.02194625       9.17917824      -0.01755410      -0.04339264      -0.08261467
Nb      10.40215456      12.02886631       9.17809435       0.10618647      -0.03286648      -0.06327048
Nb      13.88822152      12.03128501       9.18039649       0.02205322      -0.00411565      -0.08073136
Nb      17.35596853      12.03587620       9.17908408       0.02318565      -0.00943105      -0.01343303
Nb      20.83763700      12.03033663       9.17910647      -0.02306372      -0.00283742       0.02276906
Nb      22.56630076      15.02861808       9.17705653       0.02335544       0.03553197      -0.01397251
Nb      -5.20658219      15.03029594       9.17659233      -0.02925282       0.03166069      -0.00511821
Nb      -1.73833980      15.02459133       9.17317215      -0.01997252       0.00041040       0.00460374
Nb       1.73484348      15.02829636       9.17958481      -0.03180778       0.00460465      -0.03504873
Nb       5.20589593      15.03612611       9.18168725      -0.01885863      -0.03216735      -0.02211653
Nb       8.68086432      15.03976972       9.17888327       0.00219525      -0.03820641       0.04593394
Nb      12.14802036      15.04234807       9.18297341       0.08447793      -0.04058762      -0.07846999
Nb      15.63030183      15.03987904       9.17373145      -0.07513110      -0.00529238       0.06531269
Nb      19.09549264      15.03812163       9.17767493       0.01018357      -0.05734465      -0.01394166
Nb      20.82764743      18.02795046       9.17444712       0.00893802       0.04356145       0.04353154
Nb      -6.94973854      18.02737846       9.17905893       0.00944009       0.01131927       0.02239482
Nb      -3.48021922      18.03427146       9.17664005      -0.00831338      -0.02979196      -0.00106167
Nb       0.00389391      18.04037680       9.18215972      -0.03606861      -0.01698430      -0.07233652
Nb       3.46789262      18.04915817       9.17618630       0.01321852      -0.06084692       0.00599971
Nb       6.94846114      18.04875176       9.17258533      -0.05505152      -0.03763536       0.13718837
Nb      10.42627115      18.04603028       9.17276007      -0.00379932       0.01820008       0.02004679
Nb      13.89745014      18.04045716       9.18290495      -0.08572168       0.00734718      -0.00801885
Nb      17.35920633      18.03163223       9.17656387      -0.01693320       0.00584878      -0.05049968
Nb      19.09125583      21.03553658       9.17933206       0.00339195       0.03344468      -0.04642605
Nb      -8.68074434      21.04743177       9.18242275      -0.00873532      -0.02941911      -0.02027277
Nb      -5.21637211      21.05159301       9.17455175       0.02508864      -0.07264477       0.10143778
Nb      -1.72951625      21.05056887       9.17435516      -0.03870776      -0.03092990      -0.01122514
Nb       1.73736079      21.05576588       9.17850092       0.01449801      -0.02629993       0.02185656
Nb       5.20784070      21.05049987       9.17739776      -0.03143808      -0.01494086       0.00072833
Nb       8.68076528      21.04630184       9.18190880       0.04523887      -0.00650177       0.01663471
Nb      12.15807976      21.04262900       9.18054444      -0.04934725      -0.00955289       0.03694904
Nb      15.61496707      21.03244332       9.17867787       0.02239291       0.06397594      -0.09168083
Nb      17.35602353      24.04520210       9.17724872      -0.03530084       0.01493637      -0.03026922
Nb     -10.41356665      24.05431818       9.17548494      -0.00642769      -0.02200289       0.02795650
Nb      -6.94659104      24.05882440       9.17294620       0.01815400       0.02600034       0.04374088
Nb      -3.47018762      24.06263090       9.17457102      -0.02520508      -0.03642051       0.06347583
Nb       0.00371379      24.05846453       9.17892310       0.00492443      -0.01325224       0.00804305
Nb       3.48208057      24.05611969       9.18080050      -0.06081868      -0.04181691      -0.06818508
Nb       6.94327499      24.04880026       9.17468519       0.00756735       0.02938569       0.04654415
Nb      10.40844081      24.04018854       9.17778525       0.02474915       0.01649826       0.01919062
Nb      13.87483200      24.04671518       9.17171143       0.03903839      -0.00559136       0.05310038
Nb      31.23441106       0.00296987       9.17559269       0.07078026      -0.04247167       0.08401309
Nb       3.47324655       0.01217930       9.18052737      -0.02900525      -0.02909620      -0.07263361
Nb       6.95837526       0.00654991       9.17859068      -0.09041541      -0.04244706      -0.07105901
Nb      10.41705033       0.00620140       9.17485663       0.03812224      -0.03985147       0.01976543
Nb      -1.72851489      27.05251521       9.17873496      -0.08561604       0.02597307       0.07387296
Nb       1.73482036      27.05193211       9.17925735       0.04763718      -0.00845745       0.02369327
Nb       5.20766198      27.04825440       9.17494382      -0.01705525       0.03029614       0.04191067
Nb       8.67908499      27.04742507       9.17524485      -0.02196456      -0.02931808       0.07336100
Nb      12.14441530      27.05563823       9.18463807      -0.05698924       0.01498498      -0.03294223
Se       1.73172253       1.01870843      10.86345703      -0.00050544      -0.08328616      -0.00850268
Se       5.21191160       0.99993755      10.86270703      -0.00738960       0.05870278      -0.01751635
Se       8.67818673       0.99440313      10.86939208       0.04511157       0.07597661       0.01434599
Se      12.15487884       0.99877460      10.86842475      -0.00903688       0.02897270      -0.05131607
Se      15.62473137       0.99445725      10.87224342       0.00423382       0.02429113      -0.00107660
Se      19.09654446       1.00026604      10.86643851       0.00221733      -0.01241459      -0.02104870
Se      22.57224254       0.99893939      10.85796563      -0.05555025      -0.04046920       0.09101273
Se      26.02405493       1.00550904      10.86499981       0.05326752      -0.02800201       0.06239610
Se      29.50449348       0.99382923      10.86073290      -0.00566893       0.08747060       0.08062824
Se       0.00238062       4.00966557      10.85885826      -0.02275750       0.01821746       0.02657252
Se       3.47382143       4.01079795      10.86602771       0.01103776       0.02098387       0.02124435
Se       6.95019736       4.00760890      10.86429496      -0.03181144       0.00804674       0.01765020
Se      10.42047481       4.00326882      10.87148314      -0.00387480       0.00880287      -0.03683832
Se      13.88700238       4.00516720      10.86497081       0.00958712      -0.03953291       0.00735695
Se      17.36000507       4.00725363      10.86968192      -0.03568908      -0.02042653      -0.06987865
Se      20.82093751       4.00841875      10.86679112       0.05468639      -0.01925148       0.00429397
Se      24.29197513       4.00782564      10.85721637       0.02594209       0.02785596       0.05379823
Se      27.75953656       4.01397752      10.85467524       0.07927766       0.00316780       0.11870279
Se      -1.73303696       7.01348659      10.86227292       0.01926009       0.01469654       0.03424300
Se       1.73588452       7.01263481      10.86999745       0.03856088       0.01157125      -0.06570019
Se       5.21448749       7.01506406      10.87023497      -0.03682931      -0.02939220      -0.04184296
Se       8.67995747       7.01275115      10.86725735       0.02214106      -0.03513161      -0.02381262
Se      12.15063156       7.00738855      10.86946954      -0.05059097       0.02440502      -0.06455417
Se      15.61784181       7.01337538      10.86400953      -0.00718770       0.01043189       0.00150474
Se      19.08878179       7.02083443      10.86317179      -0.00853767      -0.01776811       0.00633597
Se      22.56893336       7.01436516      10.86305909      -0.04855779       0.03615127       0.01211130
Se      26.03058082       7.02080088      10.86611178       0.06095930       0.00194553      -0.00136776
Se      -3.46323089      10.02273433      10.87164962      -0.02988933      -0.02591555      -0.02724197
Se       0.00199648      10.01701781      10.86627386       0.05292304       0.00176315       0.02430978
Se       3.47756959      10.01525066      10.87035887      -0.05754461       0.02715531      -0.01082655
Se       6.94029855      10.01735035      10.86098529       0.00406613       0.02533258       0.05500414
Se      10.41091984      10.01957911      10.86054916       0.00097660       0.02024717       0.02267181
Se      13.88196183      10.02017114      10.86461710       0.00044201       0.02723366      -0.01537235
Se      17.35393956      10.02761152      10.86101998       0.00660351      -0.00981823       0.03937659
Se      20.82789128      10.02330823      10.86561068       0.02913206       0.00470158      -0.00990186
Se      24.29748903      10.03230255      10.87321846       0.02645598      -0.07008671      -0.08721370
Se      -5.20193952      13.03132430      10.86511747      -0.00909130      -0.01332862       0.01603930
Se      -1.73875441      13.02322966      10.85992104       0.04992097       0.01675613       0.06502032
Se       1.72969981      13.02417804      10.86467639       0.01031249       0.00682682       0.02142985
Se       5.20314366      13.02925275      10.85659430       0.00548104      -0.00878611       0.08060068
Se       8.67544821      13.02849296      10.85985239       0.00188070       0.01791816       0.07998510
Se      12.15275036      13.03496115      10.85954732      -0.04785458      -0.03303998       0.01954322
Se      15.62553887      13.03648018      10.86707434      -0.03837372      -0.01785683      -0.01043231
Se      19.09506069      13.03319887      10.86491905       0.02764119      -0.03261248       0.00540798
Se      22.57649170      13.03210276      10.86094693      -0.04512635      -0.02633785       0.06791822
Se      -6.94110260      16.03202933      10.87314724      -0.00932132      -0.00490434      -0.05497300
Se      -3.46984316      16.03193084      10.85890855      -0.00953089       0.00263693       0.05309828
Se      -0.00483028      16.03325343      10.86273365       0.00068772      -0.00975826       0.01826585
Se       3.46592785      16.03687675      10.86036432       0.00625047       0.02035180       0.04653614
Se       6.94374943      16.02927023      10.86551578      -0.00956235       0.09140324       0.01019468
Se      10.41696567      16.04455470      10.86178816      -0.03012778      -0.02744293       0.06462942
Se      13.87885854      16.04166113      10.87702410       0.09093968      -0.03581121      -0.08553996
Se      17.36158413      16.02488685      10.85978943      -0.01299251       0.06773022       0.09623609
Se      20.83516561      16.02901751      10.86659416      -0.01431987       0.02239401       0.02067880
Se      -8.68390839      19.04349853      10.86573384       0.01835333      -0.02850435      -0.02636820
Se      -5.21195518      19.04279746      10.86996275      -0.01035873       0.00237028      -0.07475887
Se      -1.74437297      19.03606356      10.85754052       0.02216768       0.04259215       0.03443082
Se       1.72751384      19.04466147      10.86213636       0.04098516       0.02598259       0.06280653
Se       5.19761430      19.04526027      10.86522778       0.07724193      -0.01871962      -0.01274716
Se       8.68568976      19.04121511      10.86198640      -0.02749232      -0.01992304       0.02803472
Se      12.15504756      19.04275443      10.87449894      -0.00276521      -0.00747725      -0.06447793
Se      15.62668349      19.04146161      10.86425127       0.01634956      -0.02525019       0.06775852
Se      19.08901143      19.03694429      10.86530561       0.02442818      -0.02380458      -0.00220176
Se     -10.41639296      22.04318374      10.86843356      -0.01638709       0.05478177      -0.02722871
Se      -6.94432743      22.05853260      10.86461563       0.00426798      -0.02446510       0.01586214
Se      -3.47016591      22.04461104      10.85879585      -0.03040636       0.04402520      -0.00146496
Se      -0.01003424      22.04676377      10.86503670       0.07555966       0.03484592       0.02230211
Se       3.48095626      22.04509213      10.86499026      -0.05752318       0.03897825       0.02828734
Se       6.94984024      22.04714096      10.86112387      -0.03253437      -0.01261873       0.07184839
Se      10.42171472      22.04134597      10.87718012      -0.00702303       0.01517629      -0.07084346
Se      13.88746792      22.04559974      10.86911565       0.02100495       0.01344997      -0.01723895
Se      17.35714955      22.04624805      10.85780759      -0.00937359      -0.02648010       0.04718924
Se     -12.15544122      25.05521277      10.86191683       0.01413950       0.01657464      -0.01897433
Se      -8.67651893      25.06290424      10.86411563      -0.02911664      -0.05157959      -0.00225451
Se      -5.20780804      25.06159031      10.86911859       0.00742975      -0.04344108      -0.07256429
Se      -1.73563347      25.05560619      10.86396915       0.01698504      -0.03294564       0.04691111
Se       1.74378201      25.05353274      10.86778249      -0.02492522      -0.02736332       0.01761879
Se       5.20667218      25.04900217      10.86775111       0.06134991       0.01938568       0.02148061
Se       8.68441393      25.04201122      10.87030398      -0.03639216       0.03757142      -0.02222239
Se      12.14899220      25.05332845      10.85761284      -0.01866721      -0.03908041       0.08171284
Se      15.61472087      25.04715060      10.86692530       0.02658981       0.03806230      -0.06926376